Program Version,EnergyPlus, Version 8.9.0-eba93e8e1b, YMD=2019.10.24 14:58
1,5,Environment Title[],Latitude[deg],Longitude[deg],Time Zone[],Elevation[m]
2,8,Day of Simulation[],Month[],Day of Month[],DST Indicator[1=yes 0=no],Hour[],StartMinute[],EndMinute[],DayType
3,5,Cumulative Day of Simulation[],Month[],Day of Month[],DST Indicator[1=yes 0=no],DayType  ! When Daily Meters Requested
4,2,Cumulative Days of Simulation[],Month[]  ! When Monthly Meters Requested
5,1,Cumulative Days of Simulation[] ! When Run Period Meters Requested
6,1,Calendar Year of Simulation[] ! When Annual Meters Requested
35,1,Electricity:Facility [J] !TimeStep
1766,1,Gas:Facility [J] !TimeStep
1768,7,Gas:Facility [J] !Daily [Value,Min,Hour,Minute,Max,Hour,Minute]
37,7,Electricity:Facility [J] !Daily [Value,Min,Hour,Minute,Max,Hour,Minute]
End of Data Dictionary
1,RUN PERIOD 1,  39.17, -76.68,  -5.00,  45.00
2,1, 8, 1, 0, 1, 0.00,60.00,Monday
35,4947758401.505199
1766,34044013.4156722
2,1, 8, 1, 0, 2, 0.00,60.00,Monday
35,5016664676.275512
1766,9975553.086522095
2,1, 8, 1, 0, 3, 0.00,60.00,Monday
35,4860163101.092525
1766,9975553.086522095
2,1, 8, 1, 0, 4, 0.00,60.00,Monday
35,4715817872.946704
1766,9975553.086522095
2,1, 8, 1, 0, 5, 0.00,60.00,Monday
35,4704256166.434598
1766,9975553.086522095
2,1, 8, 1, 0, 6, 0.00,60.00,Monday
35,4710299591.21513
1766,9975553.086522095
2,1, 8, 1, 0, 7, 0.00,60.00,Monday
35,5040956967.302365
1766,9975553.086522095
2,1, 8, 1, 0, 8, 0.00,60.00,Monday
35,5486015069.35979
1766,23076769.998323546
2,1, 8, 1, 0, 9, 0.00,60.00,Monday
35,7750302767.872403
1766,104820130.95715165
2,1, 8, 1, 0,10, 0.00,60.00,Monday
35,7858798393.861387
1766,124522318.15809486
2,1, 8, 1, 0,11, 0.00,60.00,Monday
35,7650087032.558811
1766,110867178.80673191
2,1, 8, 1, 0,12, 0.00,60.00,Monday
35,7665424676.260492
1766,152672042.42050854
2,1, 8, 1, 0,13, 0.00,60.00,Monday
35,7129209467.101547
1766,173462720.7349037
2,1, 8, 1, 0,14, 0.00,60.00,Monday
35,7457810004.4507479
1766,167695556.66816575
2,1, 8, 1, 0,15, 0.00,60.00,Monday
35,7349496939.9761
1766,104458569.99070502
2,1, 8, 1, 0,16, 0.00,60.00,Monday
35,7285190681.975484
1766,103257359.90605648
2,1, 8, 1, 0,17, 0.00,60.00,Monday
35,7393316276.650651
1766,131984637.16065192
2,1, 8, 1, 0,18, 0.00,60.00,Monday
35,6054101288.178602
1766,82809329.93357638
2,1, 8, 1, 0,19, 0.00,60.00,Monday
35,5420710376.427231
1766,65507012.5238974
2,1, 8, 1, 0,20, 0.00,60.00,Monday
35,5408530087.3804039
1766,48890337.77239694
2,1, 8, 1, 0,21, 0.00,60.00,Monday
35,5148981011.084389
1766,50784080.57875412
2,1, 8, 1, 0,22, 0.00,60.00,Monday
35,4982588781.639047
1766,22432368.7648015
2,1, 8, 1, 0,23, 0.00,60.00,Monday
35,4655290415.796165
1766,9975553.086522095
2,1, 8, 1, 0,24, 0.00,60.00,Monday
35,4323539079.693456
1766,100114175.1968078
3,1, 8, 1, 0,Monday
37,143015309127.03873,4323539079.693456,24,60,7858798393.861387,10,60
1768,1671227474.5928546,9975553.086522095, 2,60,173462720.7349037,13,60
2,2, 8, 2, 0, 1, 0.00,60.00,Tuesday
35,4159098159.092558
1766,189097837.3146944
2,2, 8, 2, 0, 2, 0.00,60.00,Tuesday
35,4056914674.674611
1766,256508416.8930086
2,2, 8, 2, 0, 3, 0.00,60.00,Tuesday
35,4006838182.043757
1766,360405570.2754758
2,2, 8, 2, 0, 4, 0.00,60.00,Tuesday
35,3941847317.418665
1766,463194344.9534301
2,2, 8, 2, 0, 5, 0.00,60.00,Tuesday
35,3956849603.7325246
1766,529494037.4320049
2,2, 8, 2, 0, 6, 0.00,60.00,Tuesday
35,4038159887.4384276
1766,586395266.3661788
2,2, 8, 2, 0, 7, 0.00,60.00,Tuesday
35,4179276112.5026094
1766,438048168.6366575
2,2, 8, 2, 0, 8, 0.00,60.00,Tuesday
35,4621468915.219001
1766,227611681.62292589
2,2, 8, 2, 0, 9, 0.00,60.00,Tuesday
35,6356425544.152976
1766,104850097.14300326
2,2, 8, 2, 0,10, 0.00,60.00,Tuesday
35,6261504817.438962
1766,126175407.75923242
2,2, 8, 2, 0,11, 0.00,60.00,Tuesday
35,6126282961.571661
1766,123473998.8775887
2,2, 8, 2, 0,12, 0.00,60.00,Tuesday
35,6153617499.728731
1766,142813120.03299506
2,2, 8, 2, 0,13, 0.00,60.00,Tuesday
35,5916400934.219879
1766,174402876.81958208
2,2, 8, 2, 0,14, 0.00,60.00,Tuesday
35,6205196027.267885
1766,162005313.30353115
2,2, 8, 2, 0,15, 0.00,60.00,Tuesday
35,6231598130.964525
1766,109900863.72246924
2,2, 8, 2, 0,16, 0.00,60.00,Tuesday
35,6260195753.393104
1766,97106101.33973134
2,2, 8, 2, 0,17, 0.00,60.00,Tuesday
35,6465121752.4606699
1766,139775717.7990066
2,2, 8, 2, 0,18, 0.00,60.00,Tuesday
35,5213744961.569895
1766,92438974.02191073
2,2, 8, 2, 0,19, 0.00,60.00,Tuesday
35,4712033649.9381699
1766,125060012.06734535
2,2, 8, 2, 0,20, 0.00,60.00,Tuesday
35,4815801739.209807
1766,157342845.54375998
2,2, 8, 2, 0,21, 0.00,60.00,Tuesday
35,4645114242.991837
1766,223635738.30055455
2,2, 8, 2, 0,22, 0.00,60.00,Tuesday
35,4549280191.193062
1766,248017189.03202943
2,2, 8, 2, 0,23, 0.00,60.00,Tuesday
35,4299952686.36143
1766,286928978.22860768
2,2, 8, 2, 0,24, 0.00,60.00,Tuesday
35,4125896953.599208
1766,334436681.19526556
3,2, 8, 2, 0,Tuesday
37,121298620698.18398,3941847317.418665, 4,60,6465121752.4606699,17,60
1768,5699119238.680989,92438974.02191073,18,60,586395266.3661788, 6,60
2,3, 8, 3, 0, 1, 0.00,60.00,Wednesday
35,3979350560.098712
1766,418697245.37044176
