Program Version,EnergyPlus, Version 8.9.0-eba93e8e1b, YMD=2019.10.24 14:58
1,5,Environment Title[],Latitude[deg],Longitude[deg],Time Zone[],Elevation[m]
2,8,Day of Simulation[],Month[],Day of Month[],DST Indicator[1=yes 0=no],Hour[],StartMinute[],EndMinute[],DayType
3,5,Cumulative Day of Simulation[],Month[],Day of Month[],DST Indicator[1=yes 0=no],DayType  ! When Daily Report Variables Requested
4,2,Cumulative Days of Simulation[],Month[]  ! When Monthly Report Variables Requested
5,1,Cumulative Days of Simulation[] ! When Run Period Report Variables Requested
6,1,Calendar Year of Simulation[] ! When Annual Report Variables Requested
7,1,Environment,Site Outdoor Air Drybulb Temperature [C] !TimeStep
8,1,Environment,Site Outdoor Air Wetbulb Temperature [C] !TimeStep
9,1,Environment,Site Diffuse Solar Radiation Rate per Area [W/m2] !TimeStep
10,1,Environment,Site Direct Solar Radiation Rate per Area [W/m2] !TimeStep
11,1,BASEMENT ZN,Zone Total Internal Total Heating Rate [W] !TimeStep
12,1,CORE_BOTTOM ZN,Zone Total Internal Total Heating Rate [W] !TimeStep
13,1,CORE_MID ZN,Zone Total Internal Total Heating Rate [W] !TimeStep
14,1,CORE_TOP ZN,Zone Total Internal Total Heating Rate [W] !TimeStep
15,1,DATACENTER_BASEMENT_ZN_6 ZN,Zone Total Internal Total Heating Rate [W] !TimeStep
16,1,DATACENTER_BOT_ZN_6 ZN,Zone Total Internal Total Heating Rate [W] !TimeStep
17,1,DATACENTER_MID_ZN_6 ZN,Zone Total Internal Total Heating Rate [W] !TimeStep
18,1,DATACENTER_TOP_ZN_6 ZN,Zone Total Internal Total Heating Rate [W] !TimeStep
19,1,GROUNDFLOOR_PLENUM ZN,Zone Total Internal Total Heating Rate [W] !TimeStep
20,1,MIDFLOOR_PLENUM ZN,Zone Total Internal Total Heating Rate [W] !TimeStep
21,1,PERIMETER_BOT_ZN_1 ZN,Zone Total Internal Total Heating Rate [W] !TimeStep
22,1,PERIMETER_BOT_ZN_2 ZN,Zone Total Internal Total Heating Rate [W] !TimeStep
23,1,PERIMETER_BOT_ZN_3 ZN,Zone Total Internal Total Heating Rate [W] !TimeStep
24,1,PERIMETER_BOT_ZN_4 ZN,Zone Total Internal Total Heating Rate [W] !TimeStep
25,1,PERIMETER_MID_ZN_1 ZN,Zone Total Internal Total Heating Rate [W] !TimeStep
26,1,PERIMETER_MID_ZN_2 ZN,Zone Total Internal Total Heating Rate [W] !TimeStep
27,1,PERIMETER_MID_ZN_3 ZN,Zone Total Internal Total Heating Rate [W] !TimeStep
28,1,PERIMETER_MID_ZN_4 ZN,Zone Total Internal Total Heating Rate [W] !TimeStep
29,1,PERIMETER_TOP_ZN_1 ZN,Zone Total Internal Total Heating Rate [W] !TimeStep
30,1,PERIMETER_TOP_ZN_2 ZN,Zone Total Internal Total Heating Rate [W] !TimeStep
31,1,PERIMETER_TOP_ZN_3 ZN,Zone Total Internal Total Heating Rate [W] !TimeStep
32,1,PERIMETER_TOP_ZN_4 ZN,Zone Total Internal Total Heating Rate [W] !TimeStep
33,1,TOPFLOOR_PLENUM ZN,Zone Total Internal Total Heating Rate [W] !TimeStep
866,1,BASEMENT ZN,Zone Windows Total Transmitted Solar Radiation Rate [W] !TimeStep
867,1,BASEMENT ZN,Zone Windows Total Heat Gain Energy [J] !TimeStep
868,1,CORE_BOTTOM ZN,Zone Windows Total Transmitted Solar Radiation Rate [W] !TimeStep
869,1,CORE_BOTTOM ZN,Zone Windows Total Heat Gain Energy [J] !TimeStep
870,1,CORE_MID ZN,Zone Windows Total Transmitted Solar Radiation Rate [W] !TimeStep
871,1,CORE_MID ZN,Zone Windows Total Heat Gain Energy [J] !TimeStep
872,1,CORE_TOP ZN,Zone Windows Total Transmitted Solar Radiation Rate [W] !TimeStep
873,1,CORE_TOP ZN,Zone Windows Total Heat Gain Energy [J] !TimeStep
874,1,DATACENTER_BASEMENT_ZN_6 ZN,Zone Windows Total Transmitted Solar Radiation Rate [W] !TimeStep
875,1,DATACENTER_BASEMENT_ZN_6 ZN,Zone Windows Total Heat Gain Energy [J] !TimeStep
876,1,DATACENTER_BOT_ZN_6 ZN,Zone Windows Total Transmitted Solar Radiation Rate [W] !TimeStep
877,1,DATACENTER_BOT_ZN_6 ZN,Zone Windows Total Heat Gain Energy [J] !TimeStep
878,1,DATACENTER_MID_ZN_6 ZN,Zone Windows Total Transmitted Solar Radiation Rate [W] !TimeStep
879,1,DATACENTER_MID_ZN_6 ZN,Zone Windows Total Heat Gain Energy [J] !TimeStep
880,1,DATACENTER_TOP_ZN_6 ZN,Zone Windows Total Transmitted Solar Radiation Rate [W] !TimeStep
881,1,DATACENTER_TOP_ZN_6 ZN,Zone Windows Total Heat Gain Energy [J] !TimeStep
882,1,GROUNDFLOOR_PLENUM ZN,Zone Windows Total Transmitted Solar Radiation Rate [W] !TimeStep
883,1,GROUNDFLOOR_PLENUM ZN,Zone Windows Total Heat Gain Energy [J] !TimeStep
884,1,MIDFLOOR_PLENUM ZN,Zone Windows Total Transmitted Solar Radiation Rate [W] !TimeStep
885,1,MIDFLOOR_PLENUM ZN,Zone Windows Total Heat Gain Energy [J] !TimeStep
886,1,PERIMETER_BOT_ZN_1 ZN,Zone Windows Total Transmitted Solar Radiation Rate [W] !TimeStep
887,1,PERIMETER_BOT_ZN_1 ZN,Zone Windows Total Heat Gain Energy [J] !TimeStep
888,1,PERIMETER_BOT_ZN_2 ZN,Zone Windows Total Transmitted Solar Radiation Rate [W] !TimeStep
889,1,PERIMETER_BOT_ZN_2 ZN,Zone Windows Total Heat Gain Energy [J] !TimeStep
890,1,PERIMETER_BOT_ZN_3 ZN,Zone Windows Total Transmitted Solar Radiation Rate [W] !TimeStep
891,1,PERIMETER_BOT_ZN_3 ZN,Zone Windows Total Heat Gain Energy [J] !TimeStep
892,1,PERIMETER_BOT_ZN_4 ZN,Zone Windows Total Transmitted Solar Radiation Rate [W] !TimeStep
893,1,PERIMETER_BOT_ZN_4 ZN,Zone Windows Total Heat Gain Energy [J] !TimeStep
894,1,PERIMETER_MID_ZN_1 ZN,Zone Windows Total Transmitted Solar Radiation Rate [W] !TimeStep
895,1,PERIMETER_MID_ZN_1 ZN,Zone Windows Total Heat Gain Energy [J] !TimeStep
896,1,PERIMETER_MID_ZN_2 ZN,Zone Windows Total Transmitted Solar Radiation Rate [W] !TimeStep
897,1,PERIMETER_MID_ZN_2 ZN,Zone Windows Total Heat Gain Energy [J] !TimeStep
898,1,PERIMETER_MID_ZN_3 ZN,Zone Windows Total Transmitted Solar Radiation Rate [W] !TimeStep
899,1,PERIMETER_MID_ZN_3 ZN,Zone Windows Total Heat Gain Energy [J] !TimeStep
900,1,PERIMETER_MID_ZN_4 ZN,Zone Windows Total Transmitted Solar Radiation Rate [W] !TimeStep
901,1,PERIMETER_MID_ZN_4 ZN,Zone Windows Total Heat Gain Energy [J] !TimeStep
902,1,PERIMETER_TOP_ZN_1 ZN,Zone Windows Total Transmitted Solar Radiation Rate [W] !TimeStep
903,1,PERIMETER_TOP_ZN_1 ZN,Zone Windows Total Heat Gain Energy [J] !TimeStep
904,1,PERIMETER_TOP_ZN_2 ZN,Zone Windows Total Transmitted Solar Radiation Rate [W] !TimeStep
905,1,PERIMETER_TOP_ZN_2 ZN,Zone Windows Total Heat Gain Energy [J] !TimeStep
906,1,PERIMETER_TOP_ZN_3 ZN,Zone Windows Total Transmitted Solar Radiation Rate [W] !TimeStep
907,1,PERIMETER_TOP_ZN_3 ZN,Zone Windows Total Heat Gain Energy [J] !TimeStep
908,1,PERIMETER_TOP_ZN_4 ZN,Zone Windows Total Transmitted Solar Radiation Rate [W] !TimeStep
909,1,PERIMETER_TOP_ZN_4 ZN,Zone Windows Total Heat Gain Energy [J] !TimeStep
910,1,TOPFLOOR_PLENUM ZN,Zone Windows Total Transmitted Solar Radiation Rate [W] !TimeStep
911,1,TOPFLOOR_PLENUM ZN,Zone Windows Total Heat Gain Energy [J] !TimeStep
912,1,BASEMENT_WALL_EAST,Surface Inside Face Temperature [C] !TimeStep
913,1,BASEMENT_WALL_EAST,Surface Outside Face Temperature [C] !TimeStep
914,1,BASEMENT_WALL_EAST,Surface Inside Face Convection Heat Transfer Coefficient [W/m2-K] !TimeStep
915,1,BASEMENT_WALL_EAST,Surface Inside Face Convection Heat Gain Rate [W] !TimeStep
916,1,BASEMENT_WALL_NORTH,Surface Inside Face Temperature [C] !TimeStep
917,1,BASEMENT_WALL_NORTH,Surface Outside Face Temperature [C] !TimeStep
918,1,BASEMENT_WALL_NORTH,Surface Inside Face Convection Heat Transfer Coefficient [W/m2-K] !TimeStep
919,1,BASEMENT_WALL_NORTH,Surface Inside Face Convection Heat Gain Rate [W] !TimeStep
920,1,BASEMENT_WALL_SOUTH,Surface Inside Face Temperature [C] !TimeStep
921,1,BASEMENT_WALL_SOUTH,Surface Outside Face Temperature [C] !TimeStep
922,1,BASEMENT_WALL_SOUTH,Surface Inside Face Convection Heat Transfer Coefficient [W/m2-K] !TimeStep
923,1,BASEMENT_WALL_SOUTH,Surface Inside Face Convection Heat Gain Rate [W] !TimeStep
924,1,BASEMENT_WALL_WEST,Surface Inside Face Temperature [C] !TimeStep
925,1,BASEMENT_WALL_WEST,Surface Outside Face Temperature [C] !TimeStep
926,1,BASEMENT_WALL_WEST,Surface Inside Face Convection Heat Transfer Coefficient [W/m2-K] !TimeStep
927,1,BASEMENT_WALL_WEST,Surface Inside Face Convection Heat Gain Rate [W] !TimeStep
928,1,BASEMENT_FLOOR,Surface Inside Face Temperature [C] !TimeStep
929,1,BASEMENT_FLOOR,Surface Outside Face Temperature [C] !TimeStep
930,1,BASEMENT_FLOOR,Surface Inside Face Convection Heat Transfer Coefficient [W/m2-K] !TimeStep
931,1,BASEMENT_FLOOR,Surface Inside Face Convection Heat Gain Rate [W] !TimeStep
932,1,CORE_BOT_ZN_5_FLOOR-PPAUTOCREATEOTHER,Surface Inside Face Temperature [C] !TimeStep
933,1,CORE_BOT_ZN_5_FLOOR-PPAUTOCREATEOTHER,Surface Outside Face Temperature [C] !TimeStep
934,1,CORE_BOT_ZN_5_FLOOR-PPAUTOCREATEOTHER,Surface Inside Face Convection Heat Transfer Coefficient [W/m2-K] !TimeStep
935,1,CORE_BOT_ZN_5_FLOOR-PPAUTOCREATEOTHER,Surface Inside Face Convection Heat Gain Rate [W] !TimeStep
936,1,PERIMETER_BOT_ZN_1_FLOOR-PPAUTOCREATEOTHER,Surface Inside Face Temperature [C] !TimeStep
937,1,PERIMETER_BOT_ZN_1_FLOOR-PPAUTOCREATEOTHER,Surface Outside Face Temperature [C] !TimeStep
938,1,PERIMETER_BOT_ZN_1_FLOOR-PPAUTOCREATEOTHER,Surface Inside Face Convection Heat Transfer Coefficient [W/m2-K] !TimeStep
939,1,PERIMETER_BOT_ZN_1_FLOOR-PPAUTOCREATEOTHER,Surface Inside Face Convection Heat Gain Rate [W] !TimeStep
940,1,PERIMETER_BOT_ZN_2_FLOOR-PPAUTOCREATEOTHER,Surface Inside Face Temperature [C] !TimeStep
941,1,PERIMETER_BOT_ZN_2_FLOOR-PPAUTOCREATEOTHER,Surface Outside Face Temperature [C] !TimeStep
942,1,PERIMETER_BOT_ZN_2_FLOOR-PPAUTOCREATEOTHER,Surface Inside Face Convection Heat Transfer Coefficient [W/m2-K] !TimeStep
943,1,PERIMETER_BOT_ZN_2_FLOOR-PPAUTOCREATEOTHER,Surface Inside Face Convection Heat Gain Rate [W] !TimeStep
944,1,PERIMETER_BOT_ZN_3_FLOOR-PPAUTOCREATEOTHER,Surface Inside Face Temperature [C] !TimeStep
945,1,PERIMETER_BOT_ZN_3_FLOOR-PPAUTOCREATEOTHER,Surface Outside Face Temperature [C] !TimeStep
946,1,PERIMETER_BOT_ZN_3_FLOOR-PPAUTOCREATEOTHER,Surface Inside Face Convection Heat Transfer Coefficient [W/m2-K] !TimeStep
947,1,PERIMETER_BOT_ZN_3_FLOOR-PPAUTOCREATEOTHER,Surface Inside Face Convection Heat Gain Rate [W] !TimeStep
948,1,BASEMENT MASS,Surface Inside Face Temperature [C] !TimeStep
949,1,BASEMENT MASS,Surface Outside Face Temperature [C] !TimeStep
950,1,BASEMENT MASS,Surface Inside Face Convection Heat Transfer Coefficient [W/m2-K] !TimeStep
951,1,BASEMENT MASS,Surface Inside Face Convection Heat Gain Rate [W] !TimeStep
952,1,CORE_BOT_ZN_5_WALL_EAST,Surface Inside Face Temperature [C] !TimeStep
953,1,CORE_BOT_ZN_5_WALL_EAST,Surface Outside Face Temperature [C] !TimeStep
954,1,CORE_BOT_ZN_5_WALL_EAST,Surface Inside Face Convection Heat Transfer Coefficient [W/m2-K] !TimeStep
955,1,CORE_BOT_ZN_5_WALL_EAST,Surface Inside Face Convection Heat Gain Rate [W] !TimeStep
956,1,CORE_BOT_ZN_5_WALL_NORTH,Surface Inside Face Temperature [C] !TimeStep
957,1,CORE_BOT_ZN_5_WALL_NORTH,Surface Outside Face Temperature [C] !TimeStep
958,1,CORE_BOT_ZN_5_WALL_NORTH,Surface Inside Face Convection Heat Transfer Coefficient [W/m2-K] !TimeStep
959,1,CORE_BOT_ZN_5_WALL_NORTH,Surface Inside Face Convection Heat Gain Rate [W] !TimeStep
960,1,CORE_BOT_ZN_5_WALL_SOUTH,Surface Inside Face Temperature [C] !TimeStep
961,1,CORE_BOT_ZN_5_WALL_SOUTH,Surface Outside Face Temperature [C] !TimeStep
962,1,CORE_BOT_ZN_5_WALL_SOUTH,Surface Inside Face Convection Heat Transfer Coefficient [W/m2-K] !TimeStep
963,1,CORE_BOT_ZN_5_WALL_SOUTH,Surface Inside Face Convection Heat Gain Rate [W] !TimeStep
964,1,CORE_BOT_ZN_5_WALL_WEST,Surface Inside Face Temperature [C] !TimeStep
965,1,CORE_BOT_ZN_5_WALL_WEST,Surface Outside Face Temperature [C] !TimeStep
966,1,CORE_BOT_ZN_5_WALL_WEST,Surface Inside Face Convection Heat Transfer Coefficient [W/m2-K] !TimeStep
967,1,CORE_BOT_ZN_5_WALL_WEST,Surface Inside Face Convection Heat Gain Rate [W] !TimeStep
968,1,CORE_BOT_ZN_5_FLOOR,Surface Inside Face Temperature [C] !TimeStep
969,1,CORE_BOT_ZN_5_FLOOR,Surface Outside Face Temperature [C] !TimeStep
970,1,CORE_BOT_ZN_5_FLOOR,Surface Inside Face Convection Heat Transfer Coefficient [W/m2-K] !TimeStep
971,1,CORE_BOT_ZN_5_FLOOR,Surface Inside Face Convection Heat Gain Rate [W] !TimeStep
972,1,DATACENTER_BASEMENT_ZN_6_CEILING-CORE_BOT_ZN_5-PPAUTOCREATEOTHER,Surface Inside Face Temperature [C] !TimeStep
973,1,DATACENTER_BASEMENT_ZN_6_CEILING-CORE_BOT_ZN_5-PPAUTOCREATEOTHER,Surface Outside Face Temperature [C] !TimeStep
974,1,DATACENTER_BASEMENT_ZN_6_CEILING-CORE_BOT_ZN_5-PPAUTOCREATEOTHER,Surface Inside Face Convection Heat Transfer Coefficient [W/m2-K] !TimeStep
975,1,DATACENTER_BASEMENT_ZN_6_CEILING-CORE_BOT_ZN_5-PPAUTOCREATEOTHER,Surface Inside Face Convection Heat Gain Rate [W] !TimeStep
976,1,CORE_BOT_ZN_5_CEILING,Surface Inside Face Temperature [C] !TimeStep
977,1,CORE_BOT_ZN_5_CEILING,Surface Outside Face Temperature [C] !TimeStep
978,1,CORE_BOT_ZN_5_CEILING,Surface Inside Face Convection Heat Transfer Coefficient [W/m2-K] !TimeStep
979,1,CORE_BOT_ZN_5_CEILING,Surface Inside Face Convection Heat Gain Rate [W] !TimeStep
980,1,CORE_BOTTOM MASS,Surface Inside Face Temperature [C] !TimeStep
981,1,CORE_BOTTOM MASS,Surface Outside Face Temperature [C] !TimeStep
982,1,CORE_BOTTOM MASS,Surface Inside Face Convection Heat Transfer Coefficient [W/m2-K] !TimeStep
983,1,CORE_BOTTOM MASS,Surface Inside Face Convection Heat Gain Rate [W] !TimeStep
984,1,CORE_MID_ZN_5_WALL_EAST,Surface Inside Face Temperature [C] !TimeStep
985,1,CORE_MID_ZN_5_WALL_EAST,Surface Outside Face Temperature [C] !TimeStep
986,1,CORE_MID_ZN_5_WALL_EAST,Surface Inside Face Convection Heat Transfer Coefficient [W/m2-K] !TimeStep
987,1,CORE_MID_ZN_5_WALL_EAST,Surface Inside Face Convection Heat Gain Rate [W] !TimeStep
988,1,CORE_MID_ZN_5_WALL_NORTH,Surface Inside Face Temperature [C] !TimeStep
989,1,CORE_MID_ZN_5_WALL_NORTH,Surface Outside Face Temperature [C] !TimeStep
990,1,CORE_MID_ZN_5_WALL_NORTH,Surface Inside Face Convection Heat Transfer Coefficient [W/m2-K] !TimeStep
991,1,CORE_MID_ZN_5_WALL_NORTH,Surface Inside Face Convection Heat Gain Rate [W] !TimeStep
992,1,CORE_MID_ZN_5_WALL_SOUTH,Surface Inside Face Temperature [C] !TimeStep
993,1,CORE_MID_ZN_5_WALL_SOUTH,Surface Outside Face Temperature [C] !TimeStep
994,1,CORE_MID_ZN_5_WALL_SOUTH,Surface Inside Face Convection Heat Transfer Coefficient [W/m2-K] !TimeStep
995,1,CORE_MID_ZN_5_WALL_SOUTH,Surface Inside Face Convection Heat Gain Rate [W] !TimeStep
996,1,CORE_MID_ZN_5_WALL_WEST,Surface Inside Face Temperature [C] !TimeStep
997,1,CORE_MID_ZN_5_WALL_WEST,Surface Outside Face Temperature [C] !TimeStep
998,1,CORE_MID_ZN_5_WALL_WEST,Surface Inside Face Convection Heat Transfer Coefficient [W/m2-K] !TimeStep
999,1,CORE_MID_ZN_5_WALL_WEST,Surface Inside Face Convection Heat Gain Rate [W] !TimeStep
1000,1,CORE_MID_ZN_5_FLOOR,Surface Inside Face Temperature [C] !TimeStep
1001,1,CORE_MID_ZN_5_FLOOR,Surface Outside Face Temperature [C] !TimeStep
1002,1,CORE_MID_ZN_5_FLOOR,Surface Inside Face Convection Heat Transfer Coefficient [W/m2-K] !TimeStep
1003,1,CORE_MID_ZN_5_FLOOR,Surface Inside Face Convection Heat Gain Rate [W] !TimeStep
1004,1,CORE_MID_ZN_5_CEILING,Surface Inside Face Temperature [C] !TimeStep
1005,1,CORE_MID_ZN_5_CEILING,Surface Outside Face Temperature [C] !TimeStep
1006,1,CORE_MID_ZN_5_CEILING,Surface Inside Face Convection Heat Transfer Coefficient [W/m2-K] !TimeStep
1007,1,CORE_MID_ZN_5_CEILING,Surface Inside Face Convection Heat Gain Rate [W] !TimeStep
1008,1,CORE_MID MASS,Surface Inside Face Temperature [C] !TimeStep
1009,1,CORE_MID MASS,Surface Outside Face Temperature [C] !TimeStep
1010,1,CORE_MID MASS,Surface Inside Face Convection Heat Transfer Coefficient [W/m2-K] !TimeStep
1011,1,CORE_MID MASS,Surface Inside Face Convection Heat Gain Rate [W] !TimeStep
1012,1,CORE_TOP_ZN_5_WALL_EAST,Surface Inside Face Temperature [C] !TimeStep
1013,1,CORE_TOP_ZN_5_WALL_EAST,Surface Outside Face Temperature [C] !TimeStep
1014,1,CORE_TOP_ZN_5_WALL_EAST,Surface Inside Face Convection Heat Transfer Coefficient [W/m2-K] !TimeStep
1015,1,CORE_TOP_ZN_5_WALL_EAST,Surface Inside Face Convection Heat Gain Rate [W] !TimeStep
1016,1,CORE_TOP_ZN_5_WALL_NORTH,Surface Inside Face Temperature [C] !TimeStep
1017,1,CORE_TOP_ZN_5_WALL_NORTH,Surface Outside Face Temperature [C] !TimeStep
1018,1,CORE_TOP_ZN_5_WALL_NORTH,Surface Inside Face Convection Heat Transfer Coefficient [W/m2-K] !TimeStep
1019,1,CORE_TOP_ZN_5_WALL_NORTH,Surface Inside Face Convection Heat Gain Rate [W] !TimeStep
1020,1,CORE_TOP_ZN_5_WALL_SOUTH,Surface Inside Face Temperature [C] !TimeStep
1021,1,CORE_TOP_ZN_5_WALL_SOUTH,Surface Outside Face Temperature [C] !TimeStep
1022,1,CORE_TOP_ZN_5_WALL_SOUTH,Surface Inside Face Convection Heat Transfer Coefficient [W/m2-K] !TimeStep
1023,1,CORE_TOP_ZN_5_WALL_SOUTH,Surface Inside Face Convection Heat Gain Rate [W] !TimeStep
1024,1,CORE_TOP_ZN_5_WALL_WEST,Surface Inside Face Temperature [C] !TimeStep
1025,1,CORE_TOP_ZN_5_WALL_WEST,Surface Outside Face Temperature [C] !TimeStep
1026,1,CORE_TOP_ZN_5_WALL_WEST,Surface Inside Face Convection Heat Transfer Coefficient [W/m2-K] !TimeStep
1027,1,CORE_TOP_ZN_5_WALL_WEST,Surface Inside Face Convection Heat Gain Rate [W] !TimeStep
1028,1,CORE_TOP_ZN_5_FLOOR,Surface Inside Face Temperature [C] !TimeStep
1029,1,CORE_TOP_ZN_5_FLOOR,Surface Outside Face Temperature [C] !TimeStep
1030,1,CORE_TOP_ZN_5_FLOOR,Surface Inside Face Convection Heat Transfer Coefficient [W/m2-K] !TimeStep
1031,1,CORE_TOP_ZN_5_FLOOR,Surface Inside Face Convection Heat Gain Rate [W] !TimeStep
1032,1,CORE_TOP_ZN_5_CEILING,Surface Inside Face Temperature [C] !TimeStep
1033,1,CORE_TOP_ZN_5_CEILING,Surface Outside Face Temperature [C] !TimeStep
1034,1,CORE_TOP_ZN_5_CEILING,Surface Inside Face Convection Heat Transfer Coefficient [W/m2-K] !TimeStep
1035,1,CORE_TOP_ZN_5_CEILING,Surface Inside Face Convection Heat Gain Rate [W] !TimeStep
1036,1,CORE_TOP MASS,Surface Inside Face Temperature [C] !TimeStep
1037,1,CORE_TOP MASS,Surface Outside Face Temperature [C] !TimeStep
1038,1,CORE_TOP MASS,Surface Inside Face Convection Heat Transfer Coefficient [W/m2-K] !TimeStep
1039,1,CORE_TOP MASS,Surface Inside Face Convection Heat Gain Rate [W] !TimeStep
1040,1,DATACENTER_BASEMENT_ZN_6_WALL_EAST,Surface Inside Face Temperature [C] !TimeStep
1041,1,DATACENTER_BASEMENT_ZN_6_WALL_EAST,Surface Outside Face Temperature [C] !TimeStep
1042,1,DATACENTER_BASEMENT_ZN_6_WALL_EAST,Surface Inside Face Convection Heat Transfer Coefficient [W/m2-K] !TimeStep
1043,1,DATACENTER_BASEMENT_ZN_6_WALL_EAST,Surface Inside Face Convection Heat Gain Rate [W] !TimeStep
1044,1,DATACENTER_BASEMENT_ZN_6_WALL_NORTH,Surface Inside Face Temperature [C] !TimeStep
1045,1,DATACENTER_BASEMENT_ZN_6_WALL_NORTH,Surface Outside Face Temperature [C] !TimeStep
1046,1,DATACENTER_BASEMENT_ZN_6_WALL_NORTH,Surface Inside Face Convection Heat Transfer Coefficient [W/m2-K] !TimeStep
1047,1,DATACENTER_BASEMENT_ZN_6_WALL_NORTH,Surface Inside Face Convection Heat Gain Rate [W] !TimeStep
1048,1,DATACENTER_BASEMENT_ZN_6_WALL_SOUTH,Surface Inside Face Temperature [C] !TimeStep
1049,1,DATACENTER_BASEMENT_ZN_6_WALL_SOUTH,Surface Outside Face Temperature [C] !TimeStep
1050,1,DATACENTER_BASEMENT_ZN_6_WALL_SOUTH,Surface Inside Face Convection Heat Transfer Coefficient [W/m2-K] !TimeStep
1051,1,DATACENTER_BASEMENT_ZN_6_WALL_SOUTH,Surface Inside Face Convection Heat Gain Rate [W] !TimeStep
1052,1,DATACENTER_BASEMENT_ZN_6_WALL_WEST,Surface Inside Face Temperature [C] !TimeStep
1053,1,DATACENTER_BASEMENT_ZN_6_WALL_WEST,Surface Outside Face Temperature [C] !TimeStep
1054,1,DATACENTER_BASEMENT_ZN_6_WALL_WEST,Surface Inside Face Convection Heat Transfer Coefficient [W/m2-K] !TimeStep
1055,1,DATACENTER_BASEMENT_ZN_6_WALL_WEST,Surface Inside Face Convection Heat Gain Rate [W] !TimeStep
1056,1,DATACENTER_BASEMENT_ZN_6_FLOOR,Surface Inside Face Temperature [C] !TimeStep
1057,1,DATACENTER_BASEMENT_ZN_6_FLOOR,Surface Outside Face Temperature [C] !TimeStep
1058,1,DATACENTER_BASEMENT_ZN_6_FLOOR,Surface Inside Face Convection Heat Transfer Coefficient [W/m2-K] !TimeStep
1059,1,DATACENTER_BASEMENT_ZN_6_FLOOR,Surface Inside Face Convection Heat Gain Rate [W] !TimeStep
1060,1,DATACENTER_BASEMENT_ZN_6_CEILING-CORE_BOT_ZN_5,Surface Inside Face Temperature [C] !TimeStep
1061,1,DATACENTER_BASEMENT_ZN_6_CEILING-CORE_BOT_ZN_5,Surface Outside Face Temperature [C] !TimeStep
1062,1,DATACENTER_BASEMENT_ZN_6_CEILING-CORE_BOT_ZN_5,Surface Inside Face Convection Heat Transfer Coefficient [W/m2-K] !TimeStep
1063,1,DATACENTER_BASEMENT_ZN_6_CEILING-CORE_BOT_ZN_5,Surface Inside Face Convection Heat Gain Rate [W] !TimeStep
1064,1,DATACENTER_BASEMENT_ZN_6_CEILING-PERIMETER_BOT_ZN_1,Surface Inside Face Temperature [C] !TimeStep
1065,1,DATACENTER_BASEMENT_ZN_6_CEILING-PERIMETER_BOT_ZN_1,Surface Outside Face Temperature [C] !TimeStep
1066,1,DATACENTER_BASEMENT_ZN_6_CEILING-PERIMETER_BOT_ZN_1,Surface Inside Face Convection Heat Transfer Coefficient [W/m2-K] !TimeStep
1067,1,DATACENTER_BASEMENT_ZN_6_CEILING-PERIMETER_BOT_ZN_1,Surface Inside Face Convection Heat Gain Rate [W] !TimeStep
1068,1,DATACENTER_BASEMENT_ZN_6_CEILING-PERIMETER_BOT_ZN_3,Surface Inside Face Temperature [C] !TimeStep
1069,1,DATACENTER_BASEMENT_ZN_6_CEILING-PERIMETER_BOT_ZN_3,Surface Outside Face Temperature [C] !TimeStep
1070,1,DATACENTER_BASEMENT_ZN_6_CEILING-PERIMETER_BOT_ZN_3,Surface Inside Face Convection Heat Transfer Coefficient [W/m2-K] !TimeStep
1071,1,DATACENTER_BASEMENT_ZN_6_CEILING-PERIMETER_BOT_ZN_3,Surface Inside Face Convection Heat Gain Rate [W] !TimeStep
1072,1,DATACENTER_BOT_ZN_6_FLOOR-PPAUTOCREATEOTHER,Surface Inside Face Temperature [C] !TimeStep
1073,1,DATACENTER_BOT_ZN_6_FLOOR-PPAUTOCREATEOTHER,Surface Outside Face Temperature [C] !TimeStep
1074,1,DATACENTER_BOT_ZN_6_FLOOR-PPAUTOCREATEOTHER,Surface Inside Face Convection Heat Transfer Coefficient [W/m2-K] !TimeStep
1075,1,DATACENTER_BOT_ZN_6_FLOOR-PPAUTOCREATEOTHER,Surface Inside Face Convection Heat Gain Rate [W] !TimeStep
1076,1,PERIMETER_BOT_ZN_4_FLOOR-PPAUTOCREATEOTHER,Surface Inside Face Temperature [C] !TimeStep
1077,1,PERIMETER_BOT_ZN_4_FLOOR-PPAUTOCREATEOTHER,Surface Outside Face Temperature [C] !TimeStep
1078,1,PERIMETER_BOT_ZN_4_FLOOR-PPAUTOCREATEOTHER,Surface Inside Face Convection Heat Transfer Coefficient [W/m2-K] !TimeStep
1079,1,PERIMETER_BOT_ZN_4_FLOOR-PPAUTOCREATEOTHER,Surface Inside Face Convection Heat Gain Rate [W] !TimeStep
1080,1,DATACENTER_BASEMENT_ZN_6 MASS,Surface Inside Face Temperature [C] !TimeStep
1081,1,DATACENTER_BASEMENT_ZN_6 MASS,Surface Outside Face Temperature [C] !TimeStep
1082,1,DATACENTER_BASEMENT_ZN_6 MASS,Surface Inside Face Convection Heat Transfer Coefficient [W/m2-K] !TimeStep
1083,1,DATACENTER_BASEMENT_ZN_6 MASS,Surface Inside Face Convection Heat Gain Rate [W] !TimeStep
1084,1,DATACENTER_BOT_ZN_6_WALL_EAST-PPAUTOCREATEOTHER,Surface Inside Face Temperature [C] !TimeStep
1085,1,DATACENTER_BOT_ZN_6_WALL_EAST-PPAUTOCREATEOTHER,Surface Outside Face Temperature [C] !TimeStep
1086,1,DATACENTER_BOT_ZN_6_WALL_EAST-PPAUTOCREATEOTHER,Surface Inside Face Convection Heat Transfer Coefficient [W/m2-K] !TimeStep
1087,1,DATACENTER_BOT_ZN_6_WALL_EAST-PPAUTOCREATEOTHER,Surface Inside Face Convection Heat Gain Rate [W] !TimeStep
1088,1,DATACENTER_BOT_ZN_6_WALL_NORTH,Surface Inside Face Temperature [C] !TimeStep
1089,1,DATACENTER_BOT_ZN_6_WALL_NORTH,Surface Outside Face Temperature [C] !TimeStep
1090,1,DATACENTER_BOT_ZN_6_WALL_NORTH,Surface Inside Face Convection Heat Transfer Coefficient [W/m2-K] !TimeStep
1091,1,DATACENTER_BOT_ZN_6_WALL_NORTH,Surface Inside Face Convection Heat Gain Rate [W] !TimeStep
1092,1,DATACENTER_BOT_ZN_6_WALL_SOUTH,Surface Inside Face Temperature [C] !TimeStep
1093,1,DATACENTER_BOT_ZN_6_WALL_SOUTH,Surface Outside Face Temperature [C] !TimeStep
1094,1,DATACENTER_BOT_ZN_6_WALL_SOUTH,Surface Inside Face Convection Heat Transfer Coefficient [W/m2-K] !TimeStep
1095,1,DATACENTER_BOT_ZN_6_WALL_SOUTH,Surface Inside Face Convection Heat Gain Rate [W] !TimeStep
1096,1,DATACENTER_BOT_ZN_6_WALL_WEST,Surface Inside Face Temperature [C] !TimeStep
1097,1,DATACENTER_BOT_ZN_6_WALL_WEST,Surface Outside Face Temperature [C] !TimeStep
1098,1,DATACENTER_BOT_ZN_6_WALL_WEST,Surface Inside Face Convection Heat Transfer Coefficient [W/m2-K] !TimeStep
1099,1,DATACENTER_BOT_ZN_6_WALL_WEST,Surface Inside Face Convection Heat Gain Rate [W] !TimeStep
1100,1,DATACENTER_BOT_ZN_6_FLOOR,Surface Inside Face Temperature [C] !TimeStep
1101,1,DATACENTER_BOT_ZN_6_FLOOR,Surface Outside Face Temperature [C] !TimeStep
1102,1,DATACENTER_BOT_ZN_6_FLOOR,Surface Inside Face Convection Heat Transfer Coefficient [W/m2-K] !TimeStep
1103,1,DATACENTER_BOT_ZN_6_FLOOR,Surface Inside Face Convection Heat Gain Rate [W] !TimeStep
1104,1,DATACENTER_BOT_ZN_6_CEILING,Surface Inside Face Temperature [C] !TimeStep
1105,1,DATACENTER_BOT_ZN_6_CEILING,Surface Outside Face Temperature [C] !TimeStep
1106,1,DATACENTER_BOT_ZN_6_CEILING,Surface Inside Face Convection Heat Transfer Coefficient [W/m2-K] !TimeStep
1107,1,DATACENTER_BOT_ZN_6_CEILING,Surface Inside Face Convection Heat Gain Rate [W] !TimeStep
1108,1,DATACENTER_BOT_ZN_6 MASS,Surface Inside Face Temperature [C] !TimeStep
1109,1,DATACENTER_BOT_ZN_6 MASS,Surface Outside Face Temperature [C] !TimeStep
1110,1,DATACENTER_BOT_ZN_6 MASS,Surface Inside Face Convection Heat Transfer Coefficient [W/m2-K] !TimeStep
1111,1,DATACENTER_BOT_ZN_6 MASS,Surface Inside Face Convection Heat Gain Rate [W] !TimeStep
1112,1,DATACENTER_MID_ZN_6_WALL_EAST,Surface Inside Face Temperature [C] !TimeStep
1113,1,DATACENTER_MID_ZN_6_WALL_EAST,Surface Outside Face Temperature [C] !TimeStep
1114,1,DATACENTER_MID_ZN_6_WALL_EAST,Surface Inside Face Convection Heat Transfer Coefficient [W/m2-K] !TimeStep
1115,1,DATACENTER_MID_ZN_6_WALL_EAST,Surface Inside Face Convection Heat Gain Rate [W] !TimeStep
1116,1,DATACENTER_MID_ZN_6_WALL_NORTH,Surface Inside Face Temperature [C] !TimeStep
1117,1,DATACENTER_MID_ZN_6_WALL_NORTH,Surface Outside Face Temperature [C] !TimeStep
1118,1,DATACENTER_MID_ZN_6_WALL_NORTH,Surface Inside Face Convection Heat Transfer Coefficient [W/m2-K] !TimeStep
1119,1,DATACENTER_MID_ZN_6_WALL_NORTH,Surface Inside Face Convection Heat Gain Rate [W] !TimeStep
1120,1,DATACENTER_MID_ZN_6_WALL_SOUTH,Surface Inside Face Temperature [C] !TimeStep
1121,1,DATACENTER_MID_ZN_6_WALL_SOUTH,Surface Outside Face Temperature [C] !TimeStep
1122,1,DATACENTER_MID_ZN_6_WALL_SOUTH,Surface Inside Face Convection Heat Transfer Coefficient [W/m2-K] !TimeStep
1123,1,DATACENTER_MID_ZN_6_WALL_SOUTH,Surface Inside Face Convection Heat Gain Rate [W] !TimeStep
1124,1,DATACENTER_MID_ZN_6_WALL_WEST,Surface Inside Face Temperature [C] !TimeStep
1125,1,DATACENTER_MID_ZN_6_WALL_WEST,Surface Outside Face Temperature [C] !TimeStep
1126,1,DATACENTER_MID_ZN_6_WALL_WEST,Surface Inside Face Convection Heat Transfer Coefficient [W/m2-K] !TimeStep
1127,1,DATACENTER_MID_ZN_6_WALL_WEST,Surface Inside Face Convection Heat Gain Rate [W] !TimeStep
1128,1,DATACENTER_MID_ZN_6_FLOOR,Surface Inside Face Temperature [C] !TimeStep
1129,1,DATACENTER_MID_ZN_6_FLOOR,Surface Outside Face Temperature [C] !TimeStep
1130,1,DATACENTER_MID_ZN_6_FLOOR,Surface Inside Face Convection Heat Transfer Coefficient [W/m2-K] !TimeStep
1131,1,DATACENTER_MID_ZN_6_FLOOR,Surface Inside Face Convection Heat Gain Rate [W] !TimeStep
1132,1,DATACENTER_MID_ZN_6_CEILING,Surface Inside Face Temperature [C] !TimeStep
1133,1,DATACENTER_MID_ZN_6_CEILING,Surface Outside Face Temperature [C] !TimeStep
1134,1,DATACENTER_MID_ZN_6_CEILING,Surface Inside Face Convection Heat Transfer Coefficient [W/m2-K] !TimeStep
1135,1,DATACENTER_MID_ZN_6_CEILING,Surface Inside Face Convection Heat Gain Rate [W] !TimeStep
1136,1,DATACENTER_MID_ZN_6 MASS,Surface Inside Face Temperature [C] !TimeStep
1137,1,DATACENTER_MID_ZN_6 MASS,Surface Outside Face Temperature [C] !TimeStep
1138,1,DATACENTER_MID_ZN_6 MASS,Surface Inside Face Convection Heat Transfer Coefficient [W/m2-K] !TimeStep
1139,1,DATACENTER_MID_ZN_6 MASS,Surface Inside Face Convection Heat Gain Rate [W] !TimeStep
1140,1,DATACENTER_TOP_ZN_6_WALL_EAST,Surface Inside Face Temperature [C] !TimeStep
1141,1,DATACENTER_TOP_ZN_6_WALL_EAST,Surface Outside Face Temperature [C] !TimeStep
1142,1,DATACENTER_TOP_ZN_6_WALL_EAST,Surface Inside Face Convection Heat Transfer Coefficient [W/m2-K] !TimeStep
1143,1,DATACENTER_TOP_ZN_6_WALL_EAST,Surface Inside Face Convection Heat Gain Rate [W] !TimeStep
1144,1,DATACENTER_TOP_ZN_6_WALL_NORTH,Surface Inside Face Temperature [C] !TimeStep
1145,1,DATACENTER_TOP_ZN_6_WALL_NORTH,Surface Outside Face Temperature [C] !TimeStep
1146,1,DATACENTER_TOP_ZN_6_WALL_NORTH,Surface Inside Face Convection Heat Transfer Coefficient [W/m2-K] !TimeStep
1147,1,DATACENTER_TOP_ZN_6_WALL_NORTH,Surface Inside Face Convection Heat Gain Rate [W] !TimeStep
1148,1,DATACENTER_TOP_ZN_6_WALL_SOUTH,Surface Inside Face Temperature [C] !TimeStep
1149,1,DATACENTER_TOP_ZN_6_WALL_SOUTH,Surface Outside Face Temperature [C] !TimeStep
1150,1,DATACENTER_TOP_ZN_6_WALL_SOUTH,Surface Inside Face Convection Heat Transfer Coefficient [W/m2-K] !TimeStep
1151,1,DATACENTER_TOP_ZN_6_WALL_SOUTH,Surface Inside Face Convection Heat Gain Rate [W] !TimeStep
1152,1,DATACENTER_TOP_ZN_6_WALL_WEST,Surface Inside Face Temperature [C] !TimeStep
1153,1,DATACENTER_TOP_ZN_6_WALL_WEST,Surface Outside Face Temperature [C] !TimeStep
1154,1,DATACENTER_TOP_ZN_6_WALL_WEST,Surface Inside Face Convection Heat Transfer Coefficient [W/m2-K] !TimeStep
1155,1,DATACENTER_TOP_ZN_6_WALL_WEST,Surface Inside Face Convection Heat Gain Rate [W] !TimeStep
1156,1,DATACENTER_TOP_ZN_6_FLOOR,Surface Inside Face Temperature [C] !TimeStep
1157,1,DATACENTER_TOP_ZN_6_FLOOR,Surface Outside Face Temperature [C] !TimeStep
1158,1,DATACENTER_TOP_ZN_6_FLOOR,Surface Inside Face Convection Heat Transfer Coefficient [W/m2-K] !TimeStep
1159,1,DATACENTER_TOP_ZN_6_FLOOR,Surface Inside Face Convection Heat Gain Rate [W] !TimeStep
1160,1,DATACENTER_TOP_ZN_6_CEILING,Surface Inside Face Temperature [C] !TimeStep
1161,1,DATACENTER_TOP_ZN_6_CEILING,Surface Outside Face Temperature [C] !TimeStep
1162,1,DATACENTER_TOP_ZN_6_CEILING,Surface Inside Face Convection Heat Transfer Coefficient [W/m2-K] !TimeStep